22
sub_benzo2_anion.out	Energy: -475446.2884004
C         -1.20502       -0.68935       -0.04177
C         -0.00006       -1.38572       -0.00002
C          1.20497       -0.68945        0.04175
C          1.19229        0.70713        0.05314
C          0.00005        1.41671        0.00000
C         -1.19224        0.70723       -0.05314
H         -0.00010       -2.46875       -0.00003
H          2.09221        1.31068        0.12297
H         -2.09214        1.31082       -0.12293
C          2.47331       -1.48653        0.07178
C         -2.47343       -1.48632       -0.07178
C          0.00013        2.96952        0.00001
O         -1.12970        3.49338       -0.02491
O          1.13002        3.49326        0.02493
O         -2.50514       -2.67455       -0.34459
O          2.50493       -2.67474        0.34467
N         -3.61738       -0.80279        0.22919
H         -4.47216       -1.32953        0.27117
H         -3.59951        0.13481        0.58868
N          3.61728       -0.80308       -0.22929
H          3.59943        0.13454       -0.58874
H          4.47210       -1.32977       -0.27112
