23
sub_benzo2_acid.out	Energy: -475782.0524396
C          1.34816       -0.43084       -0.00185
C          0.31729       -1.36632        0.00897
C         -1.01186       -0.95524       -0.00052
C         -1.31299        0.40362        0.02858
C         -0.28579        1.34282        0.04851
C          1.04189        0.92507        0.02683
H          0.55242       -2.42414        0.02981
H         -2.33958        0.74630        0.07271
H          1.81349        1.68537        0.06808
C         -2.07630       -2.01921       -0.00141
C          2.76229       -0.94934       -0.00709
C         -0.55274        2.80519        0.09828
O          0.29962        3.65509        0.09907
O         -1.86479        3.09919        0.13674
O          3.02813       -2.06669        0.38203
O         -1.86833       -3.12765        0.44270
N          3.71644       -0.08548       -0.45827
H          4.65405       -0.44502       -0.53145
H          3.48309        0.73415       -0.99047
N         -3.28807       -1.64961       -0.51276
H         -3.37954       -0.84893       -1.11356
H         -3.98085       -2.37610       -0.59449
H         -1.93837        4.06000        0.17050
