23
Cl-pip.out	Energy: -553135.0059648
Cl        -4.19299       -0.14498       -0.53619
C          0.77490        1.33669        0.51733
C          0.76990       -1.09854        0.72557
C         -0.68282       -1.13867        0.29300
C         -0.67905        1.31355        0.08621
H          1.24936       -2.00944        0.38055
H          0.84103        1.50617        1.59840
H          1.27903        2.15595        0.01175
H         -0.77434       -1.24601       -0.78833
H         -1.20463       -1.95955        0.78237
H         -0.77545        1.23988       -0.99746
H         -1.19580        2.20630        0.43421
H          0.82862       -1.07728        1.82014
N          1.43905        0.08146        0.18607
N         -1.36877        0.12759        0.66310
H         -1.39759        0.21536        1.68113
H         -2.35569        0.08758        0.30760
C          2.69390        0.08182       -0.32470
O          3.26801        1.13830       -0.61913
C          3.37358       -1.24559       -0.52715
H          3.53392       -1.74346        0.43252
H          2.77654       -1.90625       -1.15904
H          4.33717       -1.06999       -1.00137
