23
I-pip.out	Energy: -271505.0472988
I          2.97851        0.27332       -0.10669
C         -2.30622       -1.46914       -0.71297
C         -2.35778       -0.43600        1.47535
C         -0.86473       -0.16456        1.41787
C         -0.81155       -1.22729       -0.82583
H         -2.83594        0.31150        2.10103
H         -2.49703       -2.44704       -0.26353
H         -2.75214       -1.45298       -1.70311
H         -0.65776        0.81655        0.98844
H         -0.41076       -0.23458        2.40455
H         -0.60152       -0.26959       -1.30363
H         -0.32055       -2.02621       -1.37837
H         -2.54168       -1.41301        1.93033
N         -2.92189       -0.44684        0.12830
N         -0.20441       -1.17277        0.53671
H         -0.26381       -2.09540        0.97367
H          0.79553       -0.92544        0.44203
C         -3.49011        0.64621       -0.44789
O         -3.69653        0.69490       -1.66567
C         -3.89348        1.78524        0.44873
H         -4.53998        1.44407        1.25991
H         -3.01104        2.25464        0.89117
H         -4.42469        2.52298       -0.14938
