26
NO3-pip.out	Energy: -440095.0806976
O          3.40780       -0.42822        0.57972
O          2.54950        0.81971       -0.97938
N          3.55337        0.37720       -0.38427
O          4.69844        0.71719       -0.72594
C         -1.41398       -1.47068       -0.24662
C         -1.45042        0.36844        1.36121
C          0.06295        0.48174        1.28179
C          0.09574       -1.37029       -0.35409
H         -1.85079        1.36233        1.54961
H         -1.68431       -2.22783        0.50094
H         -1.82196       -1.77640       -1.20811
H          0.37447        1.19436        0.51710
H          0.47828        0.77980        2.24473
H          0.40296       -0.68848       -1.14784
H          0.53868       -2.35134       -0.52710
H         -1.72963       -0.27542        2.20549
N         -1.99482       -0.18696        0.12747
N          0.66685       -0.83061        0.91387
H          0.51043       -1.50199        1.67240
H          1.70043       -0.70433        0.79809
C         -3.11055        0.26653       -0.50587
O         -3.59408       -0.34113       -1.46825
C         -3.73370        1.54674       -0.00355
H         -4.07880        1.43840        1.02955
H         -3.02316        2.37792       -0.04087
H         -4.58788        1.78015       -0.63982
